# vtk DataFile Version 5.1
vtk output
ASCII
DATASET UNSTRUCTURED_GRID
POINTS 1484 float
150 0 0 150 0 25 450 0 0 
450 0 25 150 300 0 150 300 25 
450 300 0 450 300 25 257.574 107.574 0 
342.426 107.574 0 257.574 107.574 25 342.426 107.574 25 
257.574 192.426 0 257.574 192.426 25 360 150 0 
342.426 192.426 0 360 150 25 342.426 192.426 25 
150 0 12.5 450 0 12.5 187.5 0 0 
225 0 0 262.5 0 0 300 0 0 
337.5 0 0 375 0 0 412.5 0 0 
168.75 0 0 206.25 0 0 243.75 0 0 
281.25 0 0 318.75 0 0 356.25 0 0 
393.75 0 0 431.25 0 0 187.5 0 25 
225 0 25 262.5 0 25 300 0 25 
337.5 0 25 375 0 25 412.5 0 25 
168.75 0 25 206.25 0 25 243.75 0 25 
281.25 0 25 318.75 0 25 356.25 0 25 
393.75 0 25 431.25 0 25 150 300 12.5 
150 262.5 0 150 225 0 150 187.5 0 
150 150 0 150 112.5 0 150 75 0 
150 37.5 0 150 281.25 0 150 243.75 0 
150 206.25 0 150 168.75 0 150 131.25 0 
150 93.75 0 150 56.25 0 150 18.75 0 
150 262.5 25 150 225 25 150 187.5 25 
150 150 25 150 112.5 25 150 75 25 
150 37.5 25 150 281.25 25 150 243.75 25 
150 206.25 25 150 168.75 25 150 131.25 25 
150 93.75 25 150 56.25 25 150 18.75 25 
450 300 12.5 450 37.5 0 450 75 0 
450 112.5 0 450 150 0 450 187.5 0 
450 225 0 450 262.5 0 450 18.75 0 
450 56.25 0 450 93.75 0 450 131.25 0 
450 168.75 0 450 206.25 0 450 243.75 0 
450 281.25 0 450 37.5 25 450 75 25 
450 112.5 25 450 150 25 450 187.5 25 
450 225 25 450 262.5 25 450 18.75 25 
450 56.25 25 450 93.75 25 450 131.25 25 
450 168.75 25 450 206.25 25 450 243.75 25 
450 281.25 25 177.804 27.8039 0 205.608 55.6078 0 
233.412 83.4116 0 163.902 13.9019 0 191.706 41.7058 0 
219.51 69.5097 0 245.493 95.4926 0 284.471 92.0444 0 
315.529 92.0444 0 270 98.0385 0 300 90 0 
330 98.0385 0 366.588 83.4116 0 394.392 55.6078 0 
422.196 27.8039 0 354.507 95.4926 0 380.49 69.5097 0 
408.294 41.7058 0 436.098 13.9019 0 177.804 27.8039 25 
205.608 55.6078 25 233.412 83.4116 25 163.902 13.9019 25 
191.706 41.7058 25 219.51 69.5097 25 245.493 95.4926 25 
284.471 92.0444 25 315.529 92.0444 25 270 98.0385 25 
300 90 25 330 98.0385 25 366.588 83.4116 25 
394.392 55.6078 25 422.196 27.8039 25 354.507 95.4926 25 
380.49 69.5097 25 408.294 41.7058 25 436.098 13.9019 25 
412.5 300 0 375 300 0 337.5 300 0 
300 300 0 262.5 300 0 225 300 0 
187.5 300 0 431.25 300 0 393.75 300 0 
356.25 300 0 318.75 300 0 281.25 300 0 
243.75 300 0 206.25 300 0 168.75 300 0 
412.5 300 25 375 300 25 337.5 300 25 
300 300 25 262.5 300 25 225 300 25 
187.5 300 25 431.25 300 25 393.75 300 25 
356.25 300 25 318.75 300 25 281.25 300 25 
243.75 300 25 206.25 300 25 168.75 300 25 
177.804 272.196 0 205.608 244.392 0 233.412 216.588 0 
163.902 286.098 0 191.706 258.294 0 219.51 230.49 0 
245.493 204.507 0 242.044 165.529 0 242.044 134.471 0 
248.038 180 0 240 150 0 248.038 120 0 
177.804 272.196 25 205.608 244.392 25 233.412 216.588 25 
163.902 286.098 25 191.706 258.294 25 219.51 230.49 25 
245.493 204.507 25 242.044 165.529 25 242.044 134.471 25 
248.038 180 25 240 150 25 248.038 120 25 
355.433 127.039 0 349.888 116.666 0 358.847 138.295 0 
355.433 172.961 0 358.847 161.705 0 349.888 183.334 0 
366.588 216.588 0 394.392 244.392 0 422.196 272.196 0 
354.507 204.507 0 380.49 230.49 0 408.294 258.294 0 
436.098 286.098 0 355.433 127.039 25 349.888 116.666 25 
358.847 138.295 25 355.433 172.961 25 358.847 161.705 25 
349.888 183.334 25 366.588 216.588 25 394.392 244.392 25 
422.196 272.196 25 354.507 204.507 25 380.49 230.49 25 
408.294 258.294 25 436.098 286.098 25 342.426 107.574 12.5 
257.574 107.574 12.5 315.529 207.956 0 284.471 207.956 0 
330 201.962 0 300 210 0 270 201.962 0 
315.529 207.956 25 284.471 207.956 25 330 201.962 25 
300 210 25 270 201.962 25 257.574 192.426 12.5 
360 150 12.5 342.426 192.426 12.5 431.25 0 12.5 
393.75 0 12.5 356.25 0 12.5 318.75 0 12.5 
168.75 0 12.5 206.25 0 12.5 243.75 0 12.5 
281.25 0 12.5 159.375 0 6.25 159.375 0 18.75 
178.125 0 6.25 178.125 0 18.75 440.625 0 18.75 
440.625 0 6.25 421.875 0 6.25 421.875 0 18.75 
215.625 0 6.25 196.875 0 6.25 187.5 0 12.5 
196.875 0 18.75 253.125 0 6.25 234.375 0 6.25 
225 0 12.5 215.625 0 18.75 234.375 0 18.75 
290.625 0 6.25 271.875 0 6.25 262.5 0 12.5 
253.125 0 18.75 271.875 0 18.75 328.125 0 6.25 
309.375 0 6.25 300 0 12.5 309.375 0 18.75 
290.625 0 18.75 365.625 0 6.25 346.875 0 6.25 
337.5 0 12.5 346.875 0 18.75 328.125 0 18.75 
403.125 0 6.25 384.375 0 6.25 375 0 12.5 
384.375 0 18.75 365.625 0 18.75 412.5 0 12.5 
403.125 0 18.75 150 18.75 12.5 150 93.75 12.5 
150 56.25 12.5 150 131.25 12.5 150 281.25 12.5 
150 243.75 12.5 150 206.25 12.5 150 168.75 12.5 
150 9.375 18.75 150 9.375 6.25 150 28.125 6.25 
150 28.125 18.75 150 290.625 6.25 150 290.625 18.75 
150 271.875 6.25 150 271.875 18.75 150 234.375 6.25 
150 253.125 6.25 150 262.5 12.5 150 253.125 18.75 
150 196.875 6.25 150 215.625 6.25 150 225 12.5 
150 234.375 18.75 150 215.625 18.75 150 159.375 6.25 
150 178.125 6.25 150 187.5 12.5 150 196.875 18.75 
150 178.125 18.75 150 121.875 6.25 150 140.625 6.25 
150 150 12.5 150 140.625 18.75 150 159.375 18.75 
150 84.375 6.25 150 103.125 6.25 150 112.5 12.5 
150 103.125 18.75 150 121.875 18.75 150 46.875 6.25 
150 65.625 6.25 150 75 12.5 150 84.375 18.75 
150 65.625 18.75 150 37.5 12.5 150 46.875 18.75 
450 281.25 12.5 450 206.25 12.5 450 243.75 12.5 
450 168.75 12.5 450 18.75 12.5 450 93.75 12.5 
450 56.25 12.5 450 131.25 12.5 450 9.375 6.25 
450 9.375 18.75 450 28.125 6.25 450 28.125 18.75 
450 290.625 18.75 450 290.625 6.25 450 271.875 6.25 
450 271.875 18.75 450 46.875 18.75 450 65.625 18.75 
450 37.5 12.5 450 46.875 6.25 450 84.375 18.75 
450 103.125 18.75 450 75 12.5 450 84.375 6.25 
450 65.625 6.25 450 121.875 18.75 450 140.625 18.75 
450 112.5 12.5 450 103.125 6.25 450 121.875 6.25 
450 159.375 18.75 450 178.125 18.75 450 150 12.5 
450 159.375 6.25 450 140.625 6.25 450 196.875 18.75 
450 215.625 18.75 450 187.5 12.5 450 196.875 6.25 
450 178.125 6.25 450 234.375 18.75 450 253.125 18.75 
450 225 12.5 450 215.625 6.25 450 234.375 6.25 
450 262.5 12.5 450 253.125 6.25 300 47.3322 0 
343.124 42.6926 0 256.876 42.6926 0 394.059 21.9744 0 
205.941 21.9744 0 333.66 71.7733 0 266.34 71.7733 0 
318.615 24.815 0 281.263 24.7834 0 300 74.9935 0 
366.204 26.4602 0 233.796 26.4602 0 362.84 56.2703 0 
237.16 56.2703 0 182.652 13.9019 0 417.348 13.9019 0 
275.405 81.9089 0 261.957 89.6734 0 249.876 77.5925 0 
338.043 89.6734 0 324.595 81.9089 0 350.124 77.5925 0 
196.721 10.9872 0 215.471 10.9872 0 191.873 24.8891 0 
229.398 13.2301 0 248.148 13.2301 0 219.869 24.2173 0 
271.881 12.3917 0 290.631 12.3917 0 259.688 21.3463 0 
269.07 33.738 0 245.336 34.5764 0 309.307 12.4075 0 
328.057 12.4075 0 299.939 24.7992 0 351.852 13.2301 0 
370.602 13.2301 0 340.312 21.3463 0 330.869 33.7538 0 
354.664 34.5764 0 384.529 10.9872 0 403.279 10.9872 0 
380.131 24.2173 0 408.127 24.8891 0 307.765 83.519 0 
292.235 83.519 0 283.17 73.3834 0 316.83 73.3834 0 
205.775 38.7911 0 235.286 69.841 0 221.384 55.9391 0 
219.702 41.034 0 235.478 41.3653 0 251.75 64.0218 0 
378.616 55.9391 0 364.714 69.841 0 348.25 64.0218 0 
394.225 38.7911 0 380.298 41.034 0 364.522 41.3653 0 
321.562 45.0124 0 316.83 59.5527 0 338.392 57.2329 0 
309.307 36.0736 0 278.438 45.0124 0 261.608 57.2329 0 
283.17 59.5527 0 290.631 36.0578 0 300 61.1629 0 
352.982 49.4815 0 247.018 49.4815 0 300 47.3322 25 
343.124 42.6926 25 256.876 42.6926 25 394.059 21.9744 25 
205.941 21.9744 25 333.66 71.7733 25 266.34 71.7733 25 
318.615 24.815 25 281.263 24.7834 25 300 74.9935 25 
366.204 26.4602 25 233.796 26.4602 25 362.84 56.2703 25 
237.16 56.2703 25 182.652 13.9019 25 417.348 13.9019 25 
261.957 89.6734 25 275.405 81.9089 25 249.876 77.5925 25 
324.595 81.9089 25 338.043 89.6734 25 350.124 77.5925 25 
215.471 10.9872 25 196.721 10.9872 25 191.873 24.8891 25 
248.148 13.2301 25 229.398 13.2301 25 219.869 24.2173 25 
290.631 12.3917 25 271.881 12.3917 25 269.07 33.738 25 
259.688 21.3463 25 245.336 34.5764 25 328.057 12.4075 25 
309.307 12.4075 25 299.939 24.7992 25 370.602 13.2301 25 
351.852 13.2301 25 330.869 33.7538 25 340.312 21.3463 25 
354.664 34.5764 25 403.279 10.9872 25 384.529 10.9872 25 
380.131 24.2173 25 408.127 24.8891 25 292.235 83.519 25 
307.765 83.519 25 283.17 73.3834 25 316.83 73.3834 25 
205.775 38.7911 25 221.384 55.9391 25 235.286 69.841 25 
219.702 41.034 25 235.478 41.3653 25 251.75 64.0218 25 
364.714 69.841 25 378.616 55.9391 25 348.25 64.0218 25 
394.225 38.7911 25 380.298 41.034 25 364.522 41.3653 25 
338.392 57.2329 25 316.83 59.5527 25 321.562 45.0124 25 
309.307 36.0736 25 283.17 59.5527 25 261.608 57.2329 25 
278.438 45.0124 25 290.631 36.0578 25 300 61.1629 25 
352.982 49.4815 25 247.018 49.4815 25 168.75 300 12.5 
243.75 300 12.5 206.25 300 12.5 281.25 300 12.5 
431.25 300 12.5 393.75 300 12.5 356.25 300 12.5 
318.75 300 12.5 159.375 300 18.75 159.375 300 6.25 
178.125 300 6.25 178.125 300 18.75 440.625 300 6.25 
440.625 300 18.75 421.875 300 6.25 421.875 300 18.75 
384.375 300 6.25 403.125 300 6.25 412.5 300 12.5 
403.125 300 18.75 346.875 300 6.25 365.625 300 6.25 
375 300 12.5 384.375 300 18.75 365.625 300 18.75 
309.375 300 6.25 328.125 300 6.25 337.5 300 12.5 
346.875 300 18.75 328.125 300 18.75 271.875 300 6.25 
290.625 300 6.25 300 300 12.5 290.625 300 18.75 
309.375 300 18.75 234.375 300 6.25 253.125 300 6.25 
262.5 300 12.5 253.125 300 18.75 271.875 300 18.75 
196.875 300 6.25 215.625 300 6.25 225 300 12.5 
234.375 300 18.75 215.625 300 18.75 187.5 300 12.5 
196.875 300 18.75 197.332 150 0 192.693 193.124 0 
192.693 106.876 0 171.974 55.9415 0 171.974 244.059 0 
221.773 116.34 0 221.773 183.66 0 174.815 168.615 0 
174.783 131.263 0 224.994 150 0 176.46 216.204 0 
176.46 83.7957 0 206.27 212.84 0 206.27 87.1604 0 
163.902 32.6519 0 163.902 267.348 0 227.592 99.8757 0 
239.673 111.957 0 231.909 125.405 0 231.909 174.595 0 
239.673 188.043 0 227.592 200.124 0 160.987 253.279 0 
160.987 234.529 0 174.889 258.127 0 163.23 220.602 0 
163.23 201.852 0 174.217 230.131 0 162.408 178.057 0 
[...]
POINT_DATA 1484
FIELD FieldData 10
Displacement 3 1484 double
0 0 0 0 0 0 0 0 0 
0 0 0 -4.1980951736e-05 -2.840678326e-06 4.338242719e-06 -4.1426837939e-05 -3.1588226984e-06 4.3336327711e-06 
-5.1652759085e-05 1.2196274858e-05 1.0347926122e-07 -5.1602151297e-05 1.210841308e-05 9.5088669005e-08 -3.1053312658e-05 3.5667230091e-06 3.2756785909e-06 
-5.293608723e-06 -2.0390909557e-06 -1.9106421563e-06 -2.8283215903e-05 3.266826167e-06 -4.5358347917e-06 -5.5907185222e-06 -2.365686907e-06 1.9645816759e-06 
-5.2718005212e-05 -1.386940239e-05 7.263676591e-07 -5.2159243956e-05 -1.4248205452e-05 4.0889472829e-07 -1.6878904515e-05 -7.0837087718e-06 -4.7391371622e-07 
-2.7792839301e-05 -1.1684860424e-05 -2.3396346515e-07 -1.6980104266e-05 -7.1459725669e-06 -2.7473253992e-07 -2.8057955283e-05 -1.1794606227e-05 -7.5777865753e-07 
0 0 0 0 0 0 0 0 0 
0 0 0 0 0 0 0 0 0 
0 0 0 0 0 0 0 0 0 
0 0 0 0 0 0 0 0 0 
0 0 0 0 0 0 0 0 0 
0 0 0 0 0 0 0 0 0 
0 0 0 0 0 0 0 0 0 
0 0 0 0 0 0 0 0 0 
0 0 0 0 0 0 0 0 0 
0 0 0 0 0 0 0 0 0 
0 0 0 0 0 0 -4.1700625351e-05 -3.0037515454e-06 4.3358567923e-06 
-4.5795218769e-05 -2.8124840156e-06 3.8484502889e-06 -4.9673877937e-05 -2.6446662546e-06 3.3547584115e-06 -5.3743880448e-05 -2.7072121171e-06 2.8488050054e-06 
-5.5263046871e-05 -7.7057738455e-06 4.2532523764e-06 -4.0769976594e-05 -1.7896731731e-05 9.7842923934e-07 -1.269924125e-05 -1.6706011803e-05 -1.5695714934e-06 
-1.5242147478e-06 -2.4379569121e-06 -8.3558791864e-07 -4.3902184181e-05 -2.8430389427e-06 4.094910125e-06 -4.7708404234e-05 -2.7381947183e-06 3.5996511454e-06 
-5.1717397191e-05 -2.614088123e-06 3.1044759213e-06 -5.5405203943e-05 -3.8322254564e-06 3.1958000143e-06 -5.1491960657e-05 -1.3759011706e-05 3.5358124484e-06 
-2.724067238e-05 -1.8268364505e-05 4.7960137414e-07 -4.5090272381e-06 -7.390817984e-06 -2.4582393971e-06 -6.4556553555e-07 -8.1420778524e-07 -4.3219674443e-07 
-4.5242382296e-05 -3.1364694094e-06 3.8681500757e-06 -4.9123573461e-05 -2.9850334167e-06 3.3796917444e-06 -5.3241062078e-05 -3.0493245299e-06 2.7884597384e-06 
-5.45657709e-05 -7.8122724014e-06 -1.6493922732e-08 -4.1095328969e-05 -1.849909238e-05 6.8923682977e-07 -1.2589112126e-05 -1.622048011e-05 2.5061223798e-06 
-1.6963880935e-06 -2.3731088773e-06 7.2602752664e-07 -4.3349048361e-05 -3.1620549121e-06 4.0992783043e-06 -4.7152020015e-05 -3.0665122763e-06 3.6339743631e-06 
-5.1170030001e-05 -2.9610511464e-06 3.1095577145e-06 -5.4882378523e-05 -4.2400811689e-06 1.7867736495e-06 -5.133046482e-05 -1.4310557958e-05 -7.0853853563e-07 
-2.7284463561e-05 -1.8570372701e-05 6.4766913015e-07 -4.6211857599e-06 -7.7525710566e-06 2.539916255e-06 -6.8008794894e-07 -7.5709531634e-07 3.1333583828e-07 
-5.1634229006e-05 1.2144716403e-05 9.9084606938e-08 -1.462650419e-06 2.9658754747e-06 5.5832276314e-07 -3.4525582748e-06 6.464146693e-06 9.6189800029e-07 
-8.8499716678e-06 1.1063844445e-05 6.1200391715e-09 -1.6974277596e-05 1.2288674912e-05 -8.6507135793e-08 -2.6083973308e-05 1.2818985937e-05 -1.5934663215e-07 
-3.507364902e-05 1.2611835854e-05 -1.5165732413e-07 -4.3437323558e-05 1.2247061816e-05 -4.3753643355e-08 -9.6318332058e-07 1.2219438599e-06 6.0689714008e-07 
-1.8878366419e-06 4.7000764202e-06 5.5107429688e-07 -5.8114944298e-06 9.0670054246e-06 7.8650659393e-07 -1.2744278277e-05 1.1686570874e-05 -5.6562206961e-08 
-2.1485300361e-05 1.2665435472e-05 -1.2977469498e-07 -3.0638709166e-05 1.2772910875e-05 -1.6887878486e-07 -3.9318773692e-05 1.240140438e-05 -1.1261452304e-07 
-4.7521201612e-05 1.2192860274e-05 3.1508770223e-08 -1.3207901265e-06 2.9708810554e-06 -6.9343394713e-07 -3.6918044522e-06 6.6374463793e-06 -8.9549113343e-07 
-8.8896258415e-06 1.1084904943e-05 -3.4838718376e-07 -1.699104192e-05 1.2278598807e-05 -2.9191379799e-07 -2.6092033127e-05 1.2788671724e-05 -1.788140187e-07 
-3.5073488361e-05 1.2562525089e-05 -6.9263152032e-08 -4.3406074238e-05 1.2172638422e-05 -9.0755266131e-10 -9.4671305189e-07 1.3265606122e-06 -7.4696100869e-07 
-1.9698505854e-06 4.6493239503e-06 -5.3553975778e-07 -5.7724381669e-06 9.1833877734e-06 -1.0100167493e-06 -1.2761636701e-05 1.170112999e-05 -3.0904142075e-07 
-2.1497053986e-05 1.2647646295e-05 -2.4211756419e-07 -3.0642324267e-05 1.2731211297e-05 -1.2018480431e-07 -3.9295444522e-05 1.2336371356e-05 -3.2920571579e-08 
-4.747854001e-05 1.2107657672e-05 4.1118887407e-08 -2.1789909253e-07 -5.8260160253e-07 -1.5696878262e-07 -1.5821017718e-06 6.0552608493e-07 3.8274392242e-07 
-5.4845133589e-06 -1.4350938224e-06 9.9002060324e-07 -1.7169867198e-07 -2.121821835e-07 -2.0463893198e-07 -1.0217512949e-06 2.8057586069e-07 1.6457611637e-07 
-2.272413597e-06 -4.809875415e-07 5.8899870255e-07 -1.2931357357e-05 -2.2655373433e-06 2.0750685754e-06 -9.4925315604e-07 -2.2128093615e-07 9.9935638817e-08 
-1.4310571127e-06 -6.9077136159e-07 -6.2904347535e-08 -1.2049329854e-05 -2.9346198746e-07 4.535830617e-06 -1.1029830321e-06 -3.8031280868e-07 -2.0384242658e-08 
-2.5423311604e-06 -8.9100114323e-07 -8.5956101892e-07 -2.7951932305e-06 -1.8175761893e-06 -3.3165271466e-07 -1.0615993074e-06 5.9379095927e-07 2.0527166388e-08 
3.9732947013e-10 1.4796861994e-06 3.1926905349e-07 -3.7129507066e-06 -2.3152208171e-06 -1.1038773074e-06 -1.8462869477e-06 -4.8822376349e-07 -1.3497931498e-07 
-5.0548803278e-07 1.2221693095e-06 1.2216765311e-07 -1.6697017648e-07 4.3003626752e-07 4.1444864511e-07 -3.264670812e-07 -4.7382054376e-07 2.0067393214e-07 
-1.3706495777e-06 3.6890338761e-07 -1.3519343519e-07 -5.2582114273e-06 -2.0170514546e-06 -3.4649548606e-07 -1.9566449193e-07 -1.7093218074e-07 1.6750975069e-07 
-9.4489353982e-07 9.9962194289e-08 -1.975934104e-08 -2.2739794419e-06 -7.2820595227e-07 -1.2021954844e-07 -1.252735885e-05 -1.446796202e-06 -1.4801466434e-06 
-1.5792622328e-06 -1.3489420734e-07 -4.9414059177e-07 -1.2913054555e-06 -6.1330466642e-07 2.0771211727e-09 -9.7230387928e-06 -5.330311022e-07 -4.5120338673e-06 
-1.0875514791e-06 -3.9097186955e-07 5.4095280135e-09 -2.5466383394e-06 -7.5609065197e-07 7.6694387692e-07 -2.7667006075e-06 -1.6212013201e-06 1.8118345312e-07 
-1.0227276575e-06 6.0700629275e-07 -3.2600905746e-08 -3.0266998817e-08 1.4966421712e-06 -3.6325649302e-07 -3.7102914414e-06 -2.4089974927e-06 9.5661609872e-07 
-1.8538580339e-06 -4.3580183864e-07 7.3462054004e-08 -4.4954928596e-07 1.2386121606e-06 -1.3729777638e-07 -1.3440040508e-07 4.611742345e-07 -4.601448491e-07 
-5.1594127332e-05 3.8170340474e-06 1.6277302094e-07 -5.100293097e-05 -4.5508092826e-06 2.2423931726e-07 -4.9158714313e-05 -1.1685338697e-05 3.7833502381e-07 
-4.614278888e-05 -1.5207300828e-05 8.6331375926e-07 -4.3574764743e-05 -1.4118075764e-05 1.6899713768e-06 -4.2352278822e-05 -1.0732447588e-05 2.6116277811e-06 
-4.2010392811e-05 -6.7596556072e-06 3.4904270858e-06 -5.1653236834e-05 8.0287647418e-06 1.3544723575e-07 -5.1395378889e-05 -4.144573126e-07 1.9435617467e-07 
-5.0240248853e-05 -8.4135125848e-06 2.6277897862e-07 -4.7726591481e-05 -1.403556503e-05 5.6643237929e-07 -4.4705530861e-05 -1.5116461069e-05 1.2451943302e-06 
-4.2840066669e-05 -1.258554742e-05 2.1437370058e-06 -4.2119980868e-05 -8.756785772e-06 3.060448998e-06 -4.1980163421e-05 -4.7841819932e-06 3.9186342516e-06 
-5.1531215467e-05 3.7040214104e-06 2.1480152404e-07 -5.0867428377e-05 -4.71502554e-06 4.574195413e-07 -4.8922003696e-05 -1.1911092832e-05 9.043757336e-07 
-4.5747033633e-05 -1.5491913831e-05 1.4872165721e-06 -4.3115714468e-05 -1.4416243779e-05 2.0591071987e-06 -4.181806476e-05 -1.1046915652e-05 2.7513583633e-06 
-4.1461471193e-05 -7.0728081407e-06 3.5188177474e-06 -5.1600728617e-05 7.9360461197e-06 1.422625205e-07 -5.1306359298e-05 -5.4618356059e-07 3.1384867886e-07 
-5.0060923224e-05 -8.5853940457e-06 6.4903307476e-07 -4.7394373625e-05 -1.4295743446e-05 1.2038755141e-06 -4.4250286511e-05 -1.541129864e-05 1.7760625504e-06 
-4.232307147e-05 -1.2885420961e-05 2.3965810844e-06 -4.1575134053e-05 -9.0725878263e-06 3.1255799014e-06 -4.1427471545e-05 -5.1016098287e-06 3.9210349325e-06 
-4.4808008108e-05 -5.7256469806e-06 3.3587745102e-06 -4.7396396452e-05 -8.5410991416e-06 2.4046795761e-06 -4.9807958912e-05 -1.1119517972e-05 1.4835646099e-06 
-4.3409852966e-05 -4.2771229356e-06 3.8464452885e-06 -4.6151302171e-05 -7.16111767e-06 2.8806075206e-06 -4.8571098218e-05 -9.8388626379e-06 1.9436671252e-06 
-5.1114075883e-05 -1.2391605566e-05 1.1051341174e-06 -5.7941583877e-05 -1.2519550461e-05 -4.424978452e-07 -6.1819019726e-05 -3.9058426037e-06 -5.2264192708e-06 
-5.504884765e-05 -1.2988315407e-05 5.0141586603e-07 -6.0370514852e-05 -9.9521395499e-06 -3.3607508316e-06 -5.4317815278e-05 1.6980693884e-07 -1.1396522417e-06 
-4.4257516641e-05 -6.0435013796e-06 3.3763317547e-06 -4.6851398509e-05 -8.8690414724e-06 2.3946880036e-06 -4.9262959847e-05 -1.1459149035e-05 1.384489217e-06 
-4.2856776581e-05 -4.5951072446e-06 3.8556320599e-06 -4.5596610778e-05 -7.4866847757e-06 2.8878359802e-06 -4.8021103618e-05 -1.015850088e-05 1.8939796726e-06 
-5.0536867873e-05 -1.2724703241e-05 9.1480475644e-07 -5.7426218953e-05 -1.2547912394e-05 1.8484774411e-06 -6.2209461504e-05 -4.0466375404e-06 6.5992853882e-06 
-5.455246358e-05 -1.3404123667e-05 7.6230710004e-07 -6.1238593977e-05 -1.0308601565e-05 5.0191388775e-06 -5.2198459579e-05 -3.9892887484e-07 1.7011598437e-06 
-1.1280242891e-05 -6.555671587e-06 -1.5043110715e-06 -8.9522641442e-06 -3.965916311e-06 -2.3062220272e-06 -1.4010632318e-05 -6.8871489732e-06 -7.0308052924e-07 
-2.2713798434e-05 -8.6145511037e-06 -3.7624321467e-07 -1.9825308046e-05 -7.6416771407e-06 -4.1169166898e-07 -2.5396814057e-05 -9.9483165334e-06 -3.5858744611e-07 
-3.4029796629e-05 -5.9068862856e-06 -1.3382637527e-07 -3.9785242193e-05 -1.3351242535e-07 -2.4192481041e-08 -4.5560854444e-05 6.0046474617e-06 3.4513867028e-08 
-3.0995758673e-05 -8.721923538e-06 -2.0690898658e-07 -3.6998453868e-05 -3.0439735463e-06 -5.1179701582e-08 -4.2617043472e-05 2.9000000448e-06 8.2438402079e-09 
-4.8582330366e-05 9.1142046228e-06 6.8337807183e-08 -1.1600507549e-05 -5.8309786554e-06 8.6683581246e-07 -8.6200854798e-06 -4.0443075823e-06 1.9412819426e-06 
-1.4183890868e-05 -6.8918322145e-06 -1.3328280851e-07 -2.2832515443e-05 -8.6422611639e-06 -3.5884501118e-07 -1.9921613581e-05 -7.6784675198e-06 -3.1022864067e-07 
-2.5578811348e-05 -1.00007107e-05 -4.7248323015e-07 -3.4068148947e-05 -6.0451686964e-06 -2.6911405374e-07 -3.9774683033e-05 -2.5190978287e-07 -5.3689473789e-08 
-4.5520421805e-05 5.9066102424e-06 6.2917984354e-08 -3.1209254944e-05 -8.7476130286e-06 -4.3158875205e-07 -3.6994971012e-05 -3.1753466391e-06 -1.566162879e-07 
-4.259393491e-05 2.7886797286e-06 1.5817000735e-08 -4.8535096259e-05 9.023345886e-06 8.6034918166e-08 -5.4728045851e-06 -1.8739304693e-06 -3.9233264357e-08 
-2.9647715567e-05 4.1024655056e-06 2.6066897149e-08 -3.6828718273e-05 -1.2533280777e-05 2.4984958032e-06 -4.8285954529e-05 -1.4335043097e-05 1.6615969431e-06 
-3.1759548434e-05 -1.2507948435e-05 1.0362666869e-06 -4.3129061291e-05 -1.3122006999e-05 2.4638408248e-06 -5.1081470547e-05 -1.4867442178e-05 9.4140046904e-07 
-3.6034903413e-05 -1.2826380837e-05 -2.8163891739e-06 -4.8234769386e-05 -1.4960851069e-05 -1.2997669202e-06 -3.1694906564e-05 -1.300745528e-05 -1.8169734707e-06 
-4.3085071325e-05 -1.3546275083e-05 -2.4872283923e-06 -5.0284938974e-05 -1.5103679328e-05 -2.350405197e-07 -5.2579948778e-05 -1.4078727204e-05 5.8088510804e-07 
-1.6951691043e-05 -7.1495175357e-06 -3.7546928504e-07 -2.7798344849e-05 -1.1693964106e-05 -4.8269902969e-07 0 0 0 
0 0 0 0 0 0 0 0 0 
0 0 0 0 0 0 0 0 0 
0 0 0 0 0 0 0 0 0 
0 0 0 0 0 0 0 0 0 
0 0 0 0 0 0 0 0 0 
0 0 0 0 0 0 0 0 0 
0 0 0 0 0 0 0 0 0 
0 0 0 0 0 0 0 0 0 
0 0 0 0 0 0 0 0 0 
0 0 0 0 0 0 0 0 0 
0 0 0 0 0 0 0 0 0 
0 0 0 0 0 0 0 0 0 
0 0 0 0 0 0 0 0 0 
0 0 0 0 0 0 0 0 0 
0 0 0 0 0 0 0 0 0 
0 0 0 -6.5496118766e-07 -6.1709517203e-07 -2.7019274845e-08 -2.7227392459e-05 -1.893659637e-05 5.1641215898e-07 
-5.3817197782e-06 -7.3501408381e-06 5.277106473e-08 -5.0273631301e-05 -1.437458263e-05 1.3836456728e-06 -4.3624924432e-05 -3.0044496997e-06 4.0972631326e-06 
-4.743328861e-05 -2.9034849367e-06 3.6171875752e-06 -5.1441651988e-05 -2.7656585182e-06 3.1050343514e-06 -5.4986052529e-05 -3.600291193e-06 2.4792801557e-06 
-2.8700998195e-07 -2.1227519421e-07 5.3952403816e-08 -2.8346749003e-07 -2.0745786085e-07 -9.147631194e-08 -1.1093132838e-06 -1.3945794342e-06 -3.8335086948e-07 
-1.1520530439e-06 -1.2944870312e-06 2.5765762385e-07 -4.2806389417e-05 -2.9248941491e-06 4.2168490844e-06 -4.2529702263e-05 -3.083975766e-06 4.2162258318e-06 
-4.4712224421e-05 -2.9139439373e-06 3.9744806062e-06 -4.4436048716e-05 -3.0752612707e-06 3.9810823221e-06 -4.8546655786e-05 -2.7752591044e-06 3.4859555434e-06 
-4.6609745773e-05 -2.8609234246e-06 3.7322288827e-06 -4.5519649339e-05 -2.9759999993e-06 3.8585280559e-06 -4.6332019489e-05 -3.0253667082e-06 3.7453419219e-06 
-5.2598001825e-05 -2.7132857768e-06 2.9707235825e-06 -5.0559868463e-05 -2.6955479528e-06 3.2351310554e-06 -4.9403212017e-05 -2.813462661e-06 3.3680633582e-06 
-4.8270354055e-05 -2.9410908785e-06 3.5010901689e-06 -5.0284247846e-05 -2.8720941066e-06 3.2452671725e-06 -5.5131550917e-05 -5.1639754759e-06 3.0303214449e-06 
-5.4622325689e-05 -2.8638503517e-06 2.7779392086e-06 -5.3484889176e-05 -2.8102465419e-06 2.8275381242e-06 -5.2337391692e-05 -2.8737983254e-06 2.9632121141e-06 
-5.4333771697e-05 -3.0422588049e-06 2.5587440987e-06 -4.6331490831e-05 -1.7064838945e-05 1.6014164023e-06 -5.3324891573e-05 -1.0947086717e-05 2.7957268872e-06 
-5.4453494934e-05 -7.794208457e-06 2.0419978083e-06 -5.2997768114e-05 -1.1065028812e-05 7.4060133552e-07 -5.4905127366e-05 -5.2721800001e-06 1.518155997e-06 
-2.0041173035e-05 -1.8503268502e-05 -1.1961555566e-07 -3.4047686803e-05 -1.8546536367e-05 8.1460487259e-07 -4.0701923126e-05 -1.8297256499e-05 7.9388448026e-07 
-3.4107322522e-05 -1.880134923e-05 5.1409146021e-07 -4.6431647285e-05 -1.7157976806e-05 6.0113170913e-07 -2.7193009551e-06 -4.045417603e-06 -9.4444480295e-07 
-8.8503946216e-06 -1.159093357e-05 -9.0431113548e-07 -1.3144039527e-05 -1.664235843e-05 3.9640283614e-07 -2.0082490553e-05 -1.8272142954e-05 1.0173983841e-06 
-8.6618837043e-06 -1.1527965119e-05 1.495832504e-06 -1.8527529639e-06 -2.2716753119e-06 -1.049770205e-07 -2.926856053e-06 -4.2268871763e-06 6.8867908107e-07 
-4.7501047127e-05 1.2145544832e-05 3.5915705825e-08 -3.0637626134e-05 1.2767496683e-05 -1.4517661142e-07 -3.9298970101e-05 1.2363448857e-05 -7.3335083808e-08 
-2.1499456355e-05 1.2676161101e-05 -1.861791361e-07 -1.0358682015e-06 1.1312090073e-06 -1.8165703114e-08 -6.0388172375e-06 9.3837998807e-06 -7.9814837454e-08 
-2.0272544043e-06 4.601279658e-06 4.4315752504e-08 -1.2774748549e-05 1.1698886935e-05 -1.8694042051e-07 -4.8160976766e-07 3.7219628604e-07 1.3898798567e-07 
-4.9431576948e-07 3.7005012037e-07 -1.7407255535e-07 -1.3628105641e-06 2.0107031572e-06 3.3502713423e-07 -1.2890458623e-06 2.1185059984e-06 -4.8593471277e-07 
-4.9546014522e-05 1.2121841323e-05 6.6776299725e-08 -4.956976474e-05 1.216635349e-05 6.7503898559e-08 -4.5466823789e-05 1.2186977506e-05 -1.1569101374e-09 
-4.5448338255e-05 1.2147501718e-05 1.3295479296e-08 -1.5775229604e-06 3.8028297347e-06 -2.8087905307e-07 -2.7645178593e-06 5.5079318305e-06 -3.1504802567e-07 
-1.462170069e-06 3.0542963936e-06 -1.0390217951e-07 -1.578278013e-06 3.884856273e-06 2.3539370785e-07 -4.8010253562e-06 7.9496098045e-06 -5.3249695797e-07 
-7.3012029551e-06 1.0496300928e-05 -3.8671405774e-07 -3.7929002225e-06 6.5335940058e-06 3.3122796883e-08 -4.7635103333e-06 7.9594878214e-06 4.4838594373e-07 
-2.6740768807e-06 5.4441793008e-06 4.1570780708e-07 -1.0783842395e-05 1.1392078201e-05 -2.5567859539e-07 -1.4845818487e-05 1.200719622e-05 -2.4239463873e-07 
-8.9234481575e-06 1.1121586701e-05 -1.7914817655e-07 -7.3529042348e-06 1.0377945488e-05 8.1477785083e-08 -1.0770357912e-05 1.1370343847e-05 -1.0602849796e-07 
-1.9230574568e-05 1.2502439325e-05 -2.3165150621e-07 -2.3790149956e-05 1.2767302749e-05 -1.9442090651e-07 -1.7002324593e-05 1.228835575e-05 -1.9044578497e-07 
-1.922491255e-05 1.2512778944e-05 -1.471058455e-07 -1.4839864923e-05 1.2003141086e-05 -1.3446752899e-07 -2.8376544509e-05 1.2794260129e-05 -1.5679881826e-07 
-3.2868745686e-05 1.2675983858e-05 -1.1074800868e-07 -2.6085670316e-05 1.2815673519e-05 -1.7207927663e-07 -2.8374196054e-05 1.281351184e-05 -1.6030240621e-07 
-2.3785866394e-05 1.2775241991e-05 -1.652361666e-07 -3.7197971388e-05 1.2456415378e-05 -7.3235332088e-08 -4.136448829e-05 1.2259283695e-05 -3.4419265497e-08 
-3.5063885079e-05 1.2589533855e-05 -1.1130927369e-07 -3.2864531137e-05 1.2698106499e-05 -1.4698744077e-07 -3.7202885747e-05 1.2486342243e-05 -1.1447802248e-07 
-4.3419035763e-05 1.2206746407e-05 -2.2659762684e-08 -4.1378969292e-05 1.2292507297e-05 -6.4280537999e-08 -8.604001374e-07 -4.2811665824e-07 -7.9059675591e-08 
-8.5246793526e-07 -7.3041032414e-07 -8.8888573023e-08 -6.6647938921e-07 -2.4451237025e-07 -1.2364805911e-08 6.2107153629e-08 2.853650214e-07 8.1533598318e-08 
-4.0254594441e-07 1.6341259262e-07 2.1261225145e-08 -1.7162987602e-06 -9.7836034729e-07 -1.0368659001e-07 -9.0752939547e-07 -3.3596881588e-07 6.369234309e-09 
-4.8177769011e-07 -3.2550860635e-07 -8.2202456701e-08 -4.7163786944e-07 -1.8518019177e-07 -4.7888470673e-08 -1.0756395556e-06 -4.4691647838e-07 -7.817164176e-08 
-2.2771520971e-07 -2.5444672598e-07 -1.536673154e-08 -5.3480272087e-07 -5.8280823442e-08 5.3160745575e-09 -1.2251397934e-06 -9.3813525516e-07 -9.9137930732e-08 
-8.2062732223e-07 -1.3782147798e-07 4.3344616372e-08 -6.1337301091e-08 -1.6637620394e-07 -9.1855795449e-08 9.4243834821e-08 5.789728859e-07 1.7478771638e-07 
-5.7967775774e-07 -2.8767889412e-07 -1.891533664e-08 -6.069929707e-06 1.9913426264e-06 2.7802536333e-06 -1.2845980819e-06 -3.8562918937e-07 4.6797878483e-07 
-2.3131235044e-06 -1.3707821628e-06 -7.2090770265e-07 -1.5333804973e-06 -7.6767288162e-07 -5.4375820868e-08 -2.0993909563e-06 -1.6211295666e-06 -2.3721934287e-07 
-1.0540384814e-07 1.3172623753e-08 2.5912045291e-09 -2.2184019382e-07 4.7503723527e-08 6.8041459441e-09 -3.0885044649e-07 3.6867215565e-08 -2.8366697206e-08 
-2.8620703411e-07 -8.3598685476e-09 -4.1944673746e-09 -2.6917233725e-07 -5.5584039926e-08 -1.8984581142e-08 -5.0005814866e-07 6.7837545564e-08 1.687303243e-08 
-2.480735371e-07 -7.8710007223e-08 -3.5148675357e-08 -2.555294776e-07 -1.1316573164e-07 -4.4649814236e-08 -3.9739255495e-07 -1.1519578269e-07 -2.5188880542e-08 
-5.7833631608e-07 -2.0653441879e-07 -3.2506447872e-08 -6.0404750755e-07 -1.5189727829e-07 -5.6297961502e-09 -2.5179710093e-07 -1.4395852263e-07 -5.9932365728e-08 
-2.1461644284e-07 -1.6315217014e-07 -5.4832550753e-08 -4.9309676888e-07 -2.50767993e-07 -6.8071756047e-08 -1.2438380997e-07 -1.6246972477e-07 -4.0122964088e-08 
-7.9180542002e-09 -6.5374190897e-08 -8.0759989719e-09 -3.2333264928e-07 -3.1245356939e-07 -5.8967280108e-08 -6.5789829691e-07 -5.0341132259e-07 -8.8066524784e-08 
-5.2086152696e-07 -5.1230178537e-07 -5.0258937254e-08 9.1266587782e-08 5.2077382837e-08 4.6695313324e-08 1.2610897088e-07 2.3228407189e-07 9.6742582656e-08 
-5.8902078492e-08 -1.8086520043e-08 2.9814125568e-08 7.1748963092e-08 7.4713251709e-07 1.778919001e-07 -1.2449253806e-06 -5.3696580365e-07 -6.3174070674e-08 
-9.851851575e-07 -3.2153893272e-07 -4.1945341306e-08 -8.944629859e-07 -3.7837696518e-07 -6.4505137935e-08 -1.3617954352e-06 -6.6579340375e-07 -9.0962338421e-08 
-8.2290865394e-07 4.6325034323e-07 1.604096062e-07 -1.3726917561e-06 -3.5086957351e-07 5.0596507505e-07 -9.7003490568e-07 -1.6126228571e-07 1.7758246174e-07 
-7.0918857226e-07 2.6982817418e-08 8.9165137128e-08 -6.9136428277e-07 -9.9457996723e-08 1.5605773185e-08 -7.4395550342e-07 -2.9464160561e-07 2.0884371949e-08 
-1.1140493698e-06 -3.5783485137e-07 -4.6233879428e-08 -1.9029859136e-06 -1.3473698591e-06 -1.9572665258e-07 -1.5902427707e-06 -1.2151170041e-06 -1.1089156299e-07 
-3.4013448563e-07 4.4599575071e-07 6.3853176172e-08 -4.7230582398e-07 -1.2364086289e-07 1.0073587998e-08 -6.294210142e-07 -5.4897829327e-07 -5.0269293745e-08 