# vtk DataFile Version 5.1
vtk output
ASCII
DATASET UNSTRUCTURED_GRID
POINTS 3803 float
-50.4035 -4e-15 -3.85 -50.4035 -4e-15 3.85 -38.605 -4.93315 -3.85 
-38.605 -4.93315 3.85 -31.9679 4.59652 -3.85 -31.9679 4.59652 3.85 
-21 0.45642 -3.85 -21 0.45642 -2.65 -21 0.45642 2.65 
-21 0.45642 3.85 -12.4448 15.4062 -3.85 -18 31.0321 -3.85 
-38.8249 32.9799 -3.85 -55 18.4356 -3.85 -36.5644 23.0321 -3.85 
-12.4448 15.4062 3.85 -18 31.0321 3.85 -38.8249 32.9799 3.85 
-55 18.4356 3.85 -36.5644 23.0321 3.85 -12.4448 15.4062 -2.65 
-2e-15 9.03214 -2.65 -2e-15 9.03214 2.65 -12.4448 15.4062 2.65 
-18 31.0321 -2.65 -18 31.0321 2.65 -5e-15 25.0321 -2.65 
140 25.0321 -2.65 175 25.0321 -2.65 175 9.03214 -2.65 
140 9.03214 -2.65 140 9.03214 2.65 -5e-15 25.0321 2.65 
140 25.0321 2.65 175 25.0321 2.65 175 9.03214 2.65 
-50.4035 -3.55e-15 1.02141e-14 -50.4035 -3.55e-15 -1.925 -50.4035 -3.55e-15 1.925 
-38.605 -4.93315 1.02141e-14 -38.605 -4.93315 -1.925 -38.605 -4.93315 1.925 
-46.7204 -2.20381 -3.85 -42.7606 -3.85949 -3.85 -48.6014 -1.16786 -3.85 
-44.7701 -3.10256 -3.85 -40.702 -4.47073 -3.85 -46.7204 -2.20381 3.85 
-42.7606 -3.85949 3.85 -48.6014 -1.16786 3.85 -44.7701 -3.10256 3.85 
-40.702 -4.47073 3.85 -31.9679 4.59652 1.02141e-14 -31.9679 4.59652 -1.925 
-31.9679 4.59652 1.925 -45.7946 1.14913 -3.85 -41.1857 2.29826 -3.85 
-36.5768 3.44739 -3.85 -48.099 0.574565 -3.85 -43.4901 1.72369 -3.85 
-38.8812 2.87282 -3.85 -34.2723 4.02195 -3.85 -45.7946 1.14913 3.85 
-41.1857 2.29826 3.85 -36.5768 3.44739 3.85 -48.099 0.574565 3.85 
-43.4901 1.72369 3.85 -38.8812 2.87282 3.85 -34.2723 4.02195 3.85 
-21 0.45642 -3.25 -21 0.45642 4.44089e-16 -21 0.45642 -1.325 
-21 0.45642 1.325 -21 0.45642 3.25 -33.8422 -5.22719 -3.85 
-29.1454 -4.38463 -3.85 -24.7819 -2.45346 -3.85 -36.2324 -5.22272 -3.85 
-31.4686 -4.94649 -3.85 -26.9059 -3.54965 -3.85 -22.8038 -1.11171 -3.85 
-33.8422 -5.22719 3.85 -29.1454 -4.38463 3.85 -24.7819 -2.45346 3.85 
-36.2324 -5.22272 3.85 -31.4686 -4.94649 3.85 -26.9059 -3.54965 3.85 
-22.8038 -1.11171 3.85 -18.1054 3.71385 -3.85 -15.6857 7.33806 -3.85 
-13.7869 11.2603 -3.85 -19.4966 2.03525 -3.85 -16.8331 5.48426 -3.85 
-14.6687 9.26646 -3.85 -13.0444 13.3101 -3.85 -12.0178 19.7626 -3.85 
-12.8666 24.0567 -3.85 -14.9189 27.923 -3.85 -12.0716 17.5687 -3.85 
-12.2847 21.9408 -3.85 -13.751 26.0651 -3.85 -16.3454 29.5905 -3.85 
-21.7827 33.2661 -3.85 -25.9618 34.6202 -3.85 -30.3358 35.0293 -3.85 
-34.6936 34.4736 -3.85 -19.8298 32.2533 -3.85 -23.835 34.0582 -3.85 
-28.1376 34.9452 -3.85 -32.53 34.8715 -3.85 -36.8004 33.8405 -3.85 
-42.6638 30.8221 -3.85 -46.2423 28.2555 -3.85 -49.5169 25.311 -3.85 
-52.448 22.0245 -3.85 -40.7741 31.9539 -3.85 -44.4884 29.5881 -3.85 
-47.9201 26.8284 -3.85 -51.0277 23.7081 -3.85 -53.7734 20.2652 -3.85 
-50.3911 19.5847 -3.85 -45.7822 20.7339 -3.85 -41.1733 21.883 -3.85 
-52.6955 19.0102 -3.85 -48.0866 20.1593 -3.85 -43.4777 21.3084 -3.85 
-38.8688 22.4576 -3.85 -28.9928 7.48581 -3.85 -27.4458 11.3336 -3.85 
-27.5929 15.4781 -3.85 -29.4088 19.2066 -3.85 -32.5811 21.8777 -3.85 
-30.3289 5.88524 -3.85 -28.0177 9.32863 -3.85 -27.3022 13.4136 -3.85 
-28.3054 17.4375 -3.85 -30.855 20.7084 -3.85 -34.5123 22.6637 -3.85 
-18.1054 3.71385 3.85 -15.6857 7.33806 3.85 -13.7869 11.2603 3.85 
-19.4966 2.03525 3.85 -16.8331 5.48426 3.85 -14.6687 9.26646 3.85 
-13.0444 13.3101 3.85 -12.0178 19.7626 3.85 -12.8666 24.0567 3.85 
-14.9189 27.923 3.85 -12.0716 17.5687 3.85 -12.2847 21.9408 3.85 
-13.751 26.0651 3.85 -16.3454 29.5905 3.85 -21.7827 33.2661 3.85 
-25.9618 34.6202 3.85 -30.3358 35.0293 3.85 -34.6936 34.4736 3.85 
-19.8298 32.2533 3.85 -23.835 34.0582 3.85 -28.1376 34.9452 3.85 
-32.53 34.8715 3.85 -36.8004 33.8405 3.85 -42.6638 30.8221 3.85 
-46.2423 28.2555 3.85 -49.5169 25.311 3.85 -52.448 22.0245 3.85 
-40.7741 31.9539 3.85 -44.4884 29.5881 3.85 -47.9201 26.8284 3.85 
-51.0277 23.7081 3.85 -53.7734 20.2652 3.85 -50.3911 19.5847 3.85 
-45.7822 20.7339 3.85 -41.1733 21.883 3.85 -52.6955 19.0102 3.85 
-48.0866 20.1593 3.85 -43.4777 21.3084 3.85 -38.8688 22.4576 3.85 
-28.9928 7.48581 3.85 -27.4458 11.3336 3.85 -27.5929 15.4781 3.85 
-29.4088 19.2066 3.85 -32.5811 21.8777 3.85 -30.3289 5.88524 3.85 
-28.0177 9.32863 3.85 -27.3022 13.4136 3.85 -28.3054 17.4375 3.85 
-30.855 20.7084 3.85 -34.5123 22.6637 3.85 -36.5644 23.0321 1.02141e-14 
-36.5644 23.0321 -1.925 -36.5644 23.0321 1.925 -12.4448 15.4062 -3.25 
-18.1054 3.71385 -2.65 -15.6857 7.33806 -2.65 -13.7869 11.2603 -2.65 
-19.4966 2.03525 -2.65 -16.8331 5.48426 -2.65 -14.6687 9.26646 -2.65 
-13.0444 13.3101 -2.65 -1.86e-15 9.03214 4.44089e-16 -1.86e-15 9.03214 -1.325 
-1.86e-15 9.03214 1.325 -4.63376 8.67211 -2.65 -9.1563 7.60069 -2.65 
-13.4591 5.84357 -2.65 -17.4388 3.44294 -2.65 -2.32386 8.94199 -2.65 
-6.91581 8.22411 -2.65 -11.3418 6.80558 -2.65 -15.4955 4.72044 -2.65 
-19.2773 2.01875 -2.65 -4.63376 8.67211 2.65 -9.1563 7.60069 2.65 
-13.4591 5.84357 2.65 -17.4388 3.44294 2.65 -2.32386 8.94199 2.65 
-6.91581 8.22411 2.65 -11.3418 6.80558 2.65 -15.4955 4.72044 2.65 
-19.2773 2.01875 2.65 -18.1054 3.71385 2.65 -15.6857 7.33806 2.65 
-13.7869 11.2603 2.65 -19.4966 2.03525 2.65 -16.8331 5.48426 2.65 
-14.6687 9.26646 2.65 -13.0444 13.3101 2.65 -12.4448 15.4062 3.25 
-18 31.0321 -3.25 -12.0178 19.7626 -2.65 -12.8666 24.0567 -2.65 
-14.9189 27.923 -2.65 -12.0716 17.5687 -2.65 -12.2847 21.9408 -2.65 
-13.751 26.0651 -2.65 -16.3454 29.5905 -2.65 -18 31.0321 4.44089e-16 
-18 31.0321 -1.325 -18 31.0321 1.325 -18 31.0321 3.25 
-38.8249 32.9799 1.02141e-14 -38.8249 32.9799 -1.925 -38.8249 32.9799 1.925 
-55 18.4356 1.02141e-14 -55 18.4356 -1.925 -55 18.4356 1.925 
-12.0178 19.7626 2.65 -12.8666 24.0567 2.65 -14.9189 27.923 2.65 
-12.0716 17.5687 2.65 -12.2847 21.9408 2.65 -13.751 26.0651 2.65 
-16.3454 29.5905 2.65 -13.9232 28.4588 -2.65 -9.48683 26.5716 -2.65 
-4.80547 25.4195 -2.65 -16.0134 29.6634 -2.65 -11.743 27.4259 -2.65 
-7.16933 25.9014 -2.65 -2.41053 25.1291 -2.65 5 25.0321 -2.65 
10 25.0321 -2.65 15 25.0321 -2.65 20 25.0321 -2.65 
25 25.0321 -2.65 30 25.0321 -2.65 35 25.0321 -2.65 
40 25.0321 -2.65 45 25.0321 -2.65 50 25.0321 -2.65 
55 25.0321 -2.65 60 25.0321 -2.65 65 25.0321 -2.65 
70 25.0321 -2.65 75 25.0321 -2.65 80 25.0321 -2.65 
85 25.0321 -2.65 90 25.0321 -2.65 95 25.0321 -2.65 
100 25.0321 -2.65 105 25.0321 -2.65 110 25.0321 -2.65 
115 25.0321 -2.65 120 25.0321 -2.65 125 25.0321 -2.65 
130 25.0321 -2.65 135 25.0321 -2.65 2.5 25.0321 -2.65 
7.5 25.0321 -2.65 12.5 25.0321 -2.65 17.5 25.0321 -2.65 
22.5 25.0321 -2.65 27.5 25.0321 -2.65 32.5 25.0321 -2.65 
37.5 25.0321 -2.65 42.5 25.0321 -2.65 47.5 25.0321 -2.65 
52.5 25.0321 -2.65 57.5 25.0321 -2.65 62.5 25.0321 -2.65 
67.5 25.0321 -2.65 72.5 25.0321 -2.65 77.5 25.0321 -2.65 
82.5 25.0321 -2.65 87.5 25.0321 -2.65 92.5 25.0321 -2.65 
97.5 25.0321 -2.65 102.5 25.0321 -2.65 107.5 25.0321 -2.65 
112.5 25.0321 -2.65 117.5 25.0321 -2.65 122.5 25.0321 -2.65 
127.5 25.0321 -2.65 132.5 25.0321 -2.65 137.5 25.0321 -2.65 
145 25.0321 -2.65 150 25.0321 -2.65 155 25.0321 -2.65 
160 25.0321 -2.65 165 25.0321 -2.65 170 25.0321 -2.65 
142.5 25.0321 -2.65 147.5 25.0321 -2.65 152.5 25.0321 -2.65 
157.5 25.0321 -2.65 162.5 25.0321 -2.65 167.5 25.0321 -2.65 
172.5 25.0321 -2.65 175 21.0321 -2.65 175 17.0321 -2.65 
175 13.0321 -2.65 175 23.0321 -2.65 175 19.0321 -2.65 
175 15.0321 -2.65 175 11.0321 -2.65 145 9.03214 -2.65 
150 9.03214 -2.65 155 9.03214 -2.65 160 9.03214 -2.65 
165 9.03214 -2.65 170 9.03214 -2.65 142.5 9.03214 -2.65 
147.5 9.03214 -2.65 152.5 9.03214 -2.65 157.5 9.03214 -2.65 
162.5 9.03214 -2.65 167.5 9.03214 -2.65 172.5 9.03214 -2.65 
5 9.03214 -2.65 10 9.03214 -2.65 15 9.03214 -2.65 
20 9.03214 -2.65 25 9.03214 -2.65 30 9.03214 -2.65 
35 9.03214 -2.65 40 9.03214 -2.65 45 9.03214 -2.65 
50 9.03214 -2.65 55 9.03214 -2.65 60 9.03214 -2.65 
65 9.03214 -2.65 70 9.03214 -2.65 75 9.03214 -2.65 
80 9.03214 -2.65 85 9.03214 -2.65 90 9.03214 -2.65 
95 9.03214 -2.65 100 9.03214 -2.65 105 9.03214 -2.65 
110 9.03214 -2.65 115 9.03214 -2.65 120 9.03214 -2.65 
125 9.03214 -2.65 130 9.03214 -2.65 135 9.03214 -2.65 
2.5 9.03214 -2.65 7.5 9.03214 -2.65 12.5 9.03214 -2.65 
17.5 9.03214 -2.65 22.5 9.03214 -2.65 27.5 9.03214 -2.65 
32.5 9.03214 -2.65 37.5 9.03214 -2.65 42.5 9.03214 -2.65 
47.5 9.03214 -2.65 52.5 9.03214 -2.65 57.5 9.03214 -2.65 
62.5 9.03214 -2.65 67.5 9.03214 -2.65 72.5 9.03214 -2.65 
77.5 9.03214 -2.65 82.5 9.03214 -2.65 87.5 9.03214 -2.65 
92.5 9.03214 -2.65 97.5 9.03214 -2.65 102.5 9.03214 -2.65 
107.5 9.03214 -2.65 112.5 9.03214 -2.65 117.5 9.03214 -2.65 
122.5 9.03214 -2.65 127.5 9.03214 -2.65 132.5 9.03214 -2.65 
137.5 9.03214 -2.65 140 9.03214 4.44089e-16 140 9.03214 -1.325 
140 9.03214 1.325 5 9.03214 2.65 10 9.03214 2.65 
15 9.03214 2.65 20 9.03214 2.65 25 9.03214 2.65 
30 9.03214 2.65 35 9.03214 2.65 40 9.03214 2.65 
45 9.03214 2.65 50 9.03214 2.65 55 9.03214 2.65 
60 9.03214 2.65 65 9.03214 2.65 70 9.03214 2.65 
75 9.03214 2.65 80 9.03214 2.65 85 9.03214 2.65 
90 9.03214 2.65 95 9.03214 2.65 100 9.03214 2.65 
105 9.03214 2.65 110 9.03214 2.65 115 9.03214 2.65 
120 9.03214 2.65 125 9.03214 2.65 130 9.03214 2.65 
135 9.03214 2.65 2.5 9.03214 2.65 7.5 9.03214 2.65 
12.5 9.03214 2.65 17.5 9.03214 2.65 22.5 9.03214 2.65 
27.5 9.03214 2.65 32.5 9.03214 2.65 37.5 9.03214 2.65 
42.5 9.03214 2.65 47.5 9.03214 2.65 52.5 9.03214 2.65 
57.5 9.03214 2.65 62.5 9.03214 2.65 67.5 9.03214 2.65 
72.5 9.03214 2.65 77.5 9.03214 2.65 82.5 9.03214 2.65 
87.5 9.03214 2.65 92.5 9.03214 2.65 97.5 9.03214 2.65 
102.5 9.03214 2.65 107.5 9.03214 2.65 112.5 9.03214 2.65 
117.5 9.03214 2.65 122.5 9.03214 2.65 127.5 9.03214 2.65 
132.5 9.03214 2.65 137.5 9.03214 2.65 -13.9232 28.4588 2.65 
-9.48683 26.5716 2.65 -4.80547 25.4195 2.65 -16.0134 29.6634 2.65 
-11.743 27.4259 2.65 -7.16933 25.9014 2.65 -2.41053 25.1291 2.65 
5 25.0321 2.65 10 25.0321 2.65 15 25.0321 2.65 
20 25.0321 2.65 25 25.0321 2.65 30 25.0321 2.65 
35 25.0321 2.65 40 25.0321 2.65 45 25.0321 2.65 
[...]
POINT_DATA 3803
FIELD FieldData 10
Displacement 3 3803 double
0 0 0 0 0 0 -5.3713007086e-10 -9.9144415307e-11 -6.421259645e-11 
-5.4021626908e-10 -1.0152464361e-10 6.1168498044e-11 0 0 0 0 0 0 
-9.6440319574e-10 -1.9388209534e-09 -4.5654699283e-11 -9.6501090332e-10 -1.936600652e-09 -2.1375916441e-11 -9.9583188757e-10 -1.9362873849e-09 1.0755646585e-10 
-1.0097202302e-09 -1.9393618002e-09 1.3318295708e-10 6.6515307171e-10 -3.8188008253e-09 3.2493923488e-10 4.0678760271e-09 -2.9681257196e-09 -1.7044508361e-10 
4.4015957011e-09 1.1596990421e-09 -7.8121187815e-11 -1.3078211878e-09 7.9029046912e-09 9.2488728657e-11 0 0 0 
3.2400884324e-10 -3.4001718017e-09 1.6464024659e-10 4.2165866193e-09 -2.894791725e-09 -2.8795805072e-10 4.4472795263e-09 1.1786375162e-09 5.2831704617e-11 
-1.2730744898e-09 7.9184566917e-09 9.257943944e-11 0 0 0 2.8736606079e-10 -3.5373298732e-09 2.9602463319e-10 
-8.1272506373e-07 -5.8082030071e-07 -3.0619679453e-07 -8.4076187661e-07 -6.0002913851e-07 2.9890241985e-07 -6.8641259407e-11 -3.1854850583e-09 2.3134601236e-10 
4.0856398234e-09 -2.9575844224e-09 -1.8637108866e-10 4.1884192332e-09 -2.9053083784e-09 -2.7098126326e-10 8.3439985306e-07 -5.9230566646e-07 3.131703592e-07 
2.5412789649e-06 -4.3148852971e-05 4.4886031803e-07 2.5418351358e-06 -5.4162122613e-05 5.6274660571e-07 -2.492935896e-06 -5.4162096562e-05 5.8612256808e-07 
-2.4924068441e-06 -4.3148839777e-05 4.7216150005e-07 -2.5096586611e-06 -4.3141096815e-05 4.7223497227e-07 8.4492459557e-07 -6.0588128926e-07 -2.9877179329e-07 
2.5240279307e-06 -4.3141109799e-05 4.4878923859e-07 2.5245837202e-06 -5.4154380335e-05 5.6275228542e-07 -2.5101872626e-06 -5.4154354322e-05 5.8612205431e-07 
0 0 0 0 0 0 0 0 0 
-5.396645926e-10 -1.1412471103e-10 -1.9286823859e-12 -5.3747274125e-10 -1.0986351301e-10 -3.3231820049e-11 -5.3967292282e-10 -1.1129895351e-10 2.9666470938e-11 
-1.2171704952e-10 1.1912476663e-11 -3.3850663121e-11 -2.995958902e-10 -7.5432351839e-12 -5.2291019151e-11 -5.3973823427e-11 7.2442397095e-12 -1.8203238735e-11 
-2.0328602648e-10 7.6898345946e-12 -4.3875867191e-11 -4.1121946668e-10 -3.9856668718e-11 -5.9125011675e-11 -1.2161747792e-10 1.2426347555e-11 3.278913754e-11 
-3.0034516745e-10 -7.9640801985e-12 5.0770675071e-11 -5.3994938179e-11 7.6964781492e-12 1.8193454433e-11 -2.0337253773e-10 7.9372627007e-12 4.3344312539e-11 
-4.1298648463e-10 -4.1283869396e-11 5.6500615022e-11 0 0 0 0 0 0 
0 0 0 0 0 0 0 0 0 
0 0 0 0 0 0 0 0 0 
0 0 0 0 0 0 0 0 0 
0 0 0 0 0 0 0 0 0 
0 0 0 0 0 0 0 0 0 
-9.6307484281e-10 -1.936292086e-09 -3.3944725257e-11 -9.8777725159e-10 -1.9468357405e-09 4.2586269181e-11 -9.7558238083e-10 -1.9416020702e-09 9.5603498685e-12 
-9.9134983112e-10 -1.9413924012e-09 7.5706346264e-11 -1.0005309662e-09 -1.9360099621e-09 1.2124141062e-10 -8.2470067171e-10 -3.6811054262e-10 -6.785656732e-11 
-1.0185328169e-09 -8.4162937252e-10 -5.8383758305e-11 -1.034342868e-09 -1.4113466507e-09 -3.9818362672e-11 -6.8245353415e-10 -2.0617212898e-10 -6.744888718e-11 
-9.4046714041e-10 -5.8336071113e-10 -6.5398243124e-11 -1.0491200879e-09 -1.1273653264e-09 -4.7745761587e-11 -1.0017835455e-09 -1.6799124322e-09 -3.7530020938e-11 
-8.3247788403e-10 -3.7017507661e-10 6.7605329504e-11 -1.0336067266e-09 -8.4562701341e-10 7.1813111591e-11 -1.0612146956e-09 -1.4138842668e-09 8.2602393121e-11 
-6.8689015154e-10 -2.0909269723e-10 6.4972453692e-11 -9.5136013643e-10 -5.8700674341e-10 7.0328298296e-11 -1.0694760881e-09 -1.130797239e-09 7.3800066815e-11 
-1.0365944749e-09 -1.6814411042e-09 1.0067953585e-10 -8.8024810112e-10 -2.4436074627e-09 -4.4645048239e-11 -7.1230444359e-10 -3.0225471692e-09 5.3673464343e-12 
-6.0623436629e-10 -3.5032903105e-09 1.7475387326e-10 -9.2800138704e-10 -2.1803408782e-09 -5.2135031163e-11 -8.016116829e-10 -2.7230610083e-09 -3.2528201595e-11 
-6.6538139389e-10 -3.2878598612e-09 6.5107469216e-11 -1.5678728139e-10 -3.681172549e-09 3.0511915072e-10 3.1861653628e-09 -4.06769797e-09 -3.3664995434e-10 
3.6949686409e-09 -3.9234337871e-09 -2.3048039516e-10 3.7387981253e-09 -3.547638878e-09 -2.1992336705e-10 1.9182711768e-09 -3.9661933985e-09 1.4022611834e-11 
3.6679438453e-09 -4.0182893879e-09 -3.1262385798e-10 3.6069020547e-09 -3.7874522916e-09 -2.299794377e-10 3.9292948251e-09 -3.2617020924e-09 -1.8678324273e-10 
4.2766323192e-09 -2.358647282e-09 -1.4496083347e-10 4.437180175e-09 -1.7102216469e-09 -1.18636919e-10 4.5466751405e-09 -9.7832097717e-10 -1.0488041e-10 
4.574342413e-09 -6.8652356329e-11 -9.6270693196e-11 4.1785261281e-09 -2.6659330746e-09 -1.5869230322e-10 4.3622810063e-09 -2.0429338867e-09 -1.3140344225e-10 
4.4980491296e-09 -1.3619245942e-09 -1.1097546234e-10 4.574041852e-09 -5.525049936e-10 -1.0039485102e-10 4.5286625803e-09 4.9761457187e-10 -9.1425014007e-11 
3.7794959334e-09 2.7182633293e-09 -2.4882472203e-11 2.7573371829e-09 4.278154179e-09 2.5627279075e-11 1.5293718135e-09 5.6406091073e-09 5.5020041023e-11 
1.7314181698e-10 6.8496198137e-09 7.4248177984e-11 4.150090701e-09 1.9180988783e-09 -5.4874663813e-11 3.3085741233e-09 3.5155520112e-09 2.6568089116e-12 
2.1588793618e-09 4.979860378e-09 4.3037965685e-11 8.67453481e-10 6.2637908836e-09 6.488226427e-11 -5.5278513216e-10 7.396656889e-09 8.347180433e-11 
-8.3371858695e-10 6.0006009911e-09 6.9647781008e-11 -3.5906046407e-10 4.0997284511e-09 4.5468759163e-11 9.2241435728e-11 2.2411014702e-09 -1.4204161131e-11 
-1.0707114737e-09 6.9517970512e-09 8.1035536837e-11 -5.9666634443e-10 5.0488883073e-09 5.8138394485e-11 -1.2554783239e-10 3.1609205218e-09 2.4574417163e-11 
1.9806841295e-10 1.3246805099e-09 -7.8220505167e-11 -1.2578225038e-10 -7.6889134645e-10 -6.5304422432e-11 1.929810514e-10 -8.8346514342e-10 1.6908246735e-11 
1.0413913037e-09 -8.1396110692e-10 -4.140038531e-11 1.7523007278e-09 -7.111695422e-10 -3.5976470738e-11 1.7597635691e-09 -4.800684196e-10 1.4057186156e-10 
-8.8819326302e-11 -5.4516120822e-10 -1.0164645682e-10 -3.6539647155e-11 -8.679919147e-10 -1.350808059e-11 5.8043165133e-10 -8.5468723351e-10 -2.6749438067e-12 
1.4546352527e-09 -7.6686060369e-10 -5.8217167868e-11 1.8530698148e-09 -6.1485082559e-10 3.8614796979e-11 1.3558425005e-09 -1.9824271935e-10 4.6248977635e-10 
-9.5675699081e-10 -2.4456472922e-09 1.8503861772e-10 -8.7164357125e-10 -3.0080455401e-09 2.340524925e-10 -8.8084568939e-10 -3.3013525553e-09 3.2093262802e-10 
-9.8465304136e-10 -2.1796504828e-09 1.6475354249e-10 -9.0606105349e-10 -2.7283899844e-09 1.9940808446e-10 -8.8589669959e-10 -3.2057885768e-09 2.9201730524e-10 
-4.3332479471e-10 -3.3562536219e-09 2.5443288793e-10 3.217898229e-09 -3.660069328e-09 -1.8380318887e-10 4.1465330881e-09 -3.6911459706e-09 -3.9807995103e-10 
4.0305485879e-09 -3.3951575495e-09 -3.780065527e-10 1.7871414617e-09 -3.5138552614e-09 3.5140067012e-11 3.8883442737e-09 -3.7650037215e-09 -2.5808198333e-10 
3.9928987857e-09 -3.5882371394e-09 -4.1095137358e-10 4.1268134719e-09 -3.1591631994e-09 -3.3680997989e-10 4.3802012126e-09 -2.310753493e-09 -1.9764750133e-10 
4.5158021508e-09 -1.6750661833e-09 -1.2741818457e-10 4.6123159777e-09 -9.4838705931e-10 -5.5250231973e-11 4.6281299798e-09 -4.5402940674e-11 1.014779196e-11 
4.3004935495e-09 -2.6069478569e-09 -2.3920060007e-10 4.451803398e-09 -2.0011593404e-09 -1.6127281002e-10 4.5704800018e-09 -1.3288647569e-09 -9.1423570909e-11 
4.6322058118e-09 -5.264887662e-10 -2.2599477362e-11 4.5771267078e-09 5.1876910981e-10 3.6893661636e-11 3.8187578823e-09 2.7347433814e-09 4.8862792295e-11 
2.7938188444e-09 4.2936478334e-09 4.1577371403e-11 1.5645399161e-09 5.6560863599e-09 5.3073392427e-11 2.08155303e-10 6.8650643402e-09 7.3436419164e-11 
4.1920938343e-09 1.9356843401e-09 5.5341310959e-11 3.3462166953e-09 3.5311852662e-09 4.3418529904e-11 2.1944946296e-09 4.9953721001e-09 4.4745817512e-11 
9.0249479767e-10 6.2791954486e-09 6.3211976685e-11 -5.1793895428e-10 7.4121565312e-09 8.318930286e-11 -7.9893566184e-10 6.0159551913e-09 6.9038761435e-11 
-3.2420015672e-10 4.1148360592e-09 4.6558174012e-11 1.2562095626e-10 2.2582173325e-09 6.0396962188e-11 -1.0359731467e-09 6.9672489696e-09 8.0880800359e-11 
-5.6186110194e-10 5.0641722096e-09 5.7327554127e-11 -9.0806345307e-11 3.1764216662e-09 4.3772076595e-11 2.1826621941e-10 1.332016545e-09 9.7605032481e-11 
-1.6408844399e-10 -7.552061838e-10 5.9220572797e-11 1.4549096163e-10 -8.5265338441e-10 -3.244517555e-11 1.0319714749e-09 -7.652049245e-10 2.0557894214e-11 
1.787425734e-09 -6.6038372731e-10 1.6533615633e-11 1.8051292335e-09 -4.4191437181e-10 -1.5200977972e-10 -1.116900473e-10 -5.3759479094e-10 9.9595049159e-11 
-8.3389631123e-11 -8.4717826033e-10 3.9648435948e-12 5.4767747981e-10 -8.1271896363e-10 -1.5289811289e-11 1.4700208994e-09 -7.1327592686e-10 3.6350574505e-11 
1.8958213487e-09 -5.7082573927e-10 -5.5585004424e-11 1.392632008e-09 -1.7187817052e-10 -4.7273119061e-10 0 0 0 
0 0 0 0 0 0 5.1003558598e-10 -3.7123050451e-09 3.1455806388e-10 
-9.1750453105e-10 -2.4727318259e-09 -1.5896114758e-11 -7.6301651299e-10 -3.1214540904e-09 5.2853670619e-11 -1.0719662515e-09 -3.6209409541e-09 2.075745887e-10 
-9.4489667897e-10 -2.1950618791e-09 -2.4326983814e-11 -8.3618663502e-10 -2.7811708715e-09 5.1429953587e-12 -9.0746316653e-10 -3.4214811677e-09 9.9904043215e-11 
-7.4088212807e-10 -3.6413642028e-09 2.5287049356e-10 -7.8416919125e-07 -6.4821869642e-07 3.3020635222e-09 -7.8690935711e-07 -6.2203369365e-07 -1.6227685249e-07 
-8.07718342e-07 -6.3166966313e-07 1.5828235453e-07 -1.6195288899e-07 -1.2384086269e-07 -1.0452333312e-07 -3.1248998462e-09 -5.6927923124e-09 -2.9783910883e-09 
-7.3989451825e-10 -3.5440051335e-09 1.1950781272e-10 -9.8935530912e-10 -2.6134189637e-09 -1.4980284786e-11 -4.1472128509e-07 -2.8974383075e-07 -2.0560788146e-07 
-4.6154183751e-08 -3.7126874344e-08 -3.1321709561e-08 -8.6757698827e-10 -3.5745475415e-09 -1.9623623107e-10 -9.6645214207e-10 -3.0901082186e-09 2.3928968857e-11 
-9.5830251151e-10 -2.2338255328e-09 -2.4526485925e-11 -1.2909486803e-07 -1.021004476e-07 8.7249081056e-08 -7.0411526381e-09 -6.4392446233e-09 6.3815589119e-09 
-1.0870872043e-09 -3.678236767e-09 2.115291986e-10 -1.0515212642e-09 -2.6194302122e-09 1.6267563428e-10 -4.0290805102e-07 -3.1776199552e-07 1.9262788993e-07 
-4.5659442231e-08 -3.4249615563e-08 3.3830817123e-08 -1.7176347226e-09 -3.8098199232e-09 9.8102645519e-10 -1.1088700773e-09 -3.1313817845e-09 1.6970594734e-10 
-1.0003931578e-09 -2.2345813239e-09 1.3834206983e-10 -9.7666776092e-10 -2.476106889e-09 1.5253558849e-10 -9.1562655046e-10 -3.0925385512e-09 1.9041702727e-10 
-1.2454114557e-09 -3.4049518654e-09 3.1525199914e-10 -9.8617589283e-10 -2.1954289916e-09 1.347290211e-10 -9.3384224689e-10 -2.7789560733e-09 1.6069051481e-10 
-1.0606437493e-09 -3.323724763e-09 2.6195632803e-10 -8.926695126e-10 -3.340369446e-09 3.1271680693e-10 1.8906883054e-10 -3.3428160324e-09 1.8788239676e-10 
4.0762309214e-09 -2.9623843624e-09 -1.7806076891e-10 3.7455236276e-09 -3.8646146859e-09 -3.1245888981e-10 3.9450644052e-09 -4.0774717002e-09 -2.6339857997e-10 
3.7541932999e-09 -3.573685407e-09 -2.3669458464e-10 2.0616124774e-09 -3.6075869474e-09 3.1237343659e-11 4.1870308586e-09 -4.1358034053e-09 -3.0689882737e-10 
3.6222383362e-09 -3.8716177657e-09 -2.6109535891e-10 3.9655672929e-09 -3.2603270851e-09 -2.0268038751e-10 4.1430556354e-09 -2.9291437868e-09 -2.2565852366e-10 
4.1138579483e-09 -2.9442790017e-09 -2.0550606567e-10 4.1667105842e-09 -2.9177388105e-09 -2.476682047e-10 4.2007770193e-09 -2.8986625579e-09 -2.7976694923e-10 
4.4001017574e-09 1.2051349114e-09 -1.2399663205e-11 4.3951628129e-09 1.1961233452e-09 -4.3478492178e-11 4.4182058877e-09 1.2053582703e-09 1.8723150452e-11 
-1.2905315524e-09 7.9105299109e-09 9.2542683917e-11 -1.2991993288e-09 7.906671145e-09 9.2527810077e-11 -1.2818298378e-09 7.9144564587e-09 9.2556113906e-11 
3.6388166887e-09 -3.5908196083e-09 -2.0523407096e-10 4.4666733969e-09 -3.8779355685e-09 -3.7867168609e-10 4.0017917893e-09 -3.4640149839e-09 -3.5518657033e-10 
1.897949473e-09 -3.2959743276e-09 2.101961974e-11 4.3973547274e-09 -3.8543055574e-09 -3.0746586493e-10 4.038185356e-09 -3.7252329079e-09 -3.6872650085e-10 
4.1098589505e-09 -3.1870917524e-09 -3.1745603075e-10 3.7954139639e-09 -3.7953147268e-09 -3.4796760558e-10 4.4094662249e-09 -2.8990442781e-09 1.3031562935e-09 
1.4519558522e-07 -1.0829000983e-07 9.0446314095e-08 3.9758491232e-09 -3.3252318557e-09 -2.2028105201e-10 3.5332448551e-09 -4.1597334351e-09 -6.3832459426e-10 
3.918845983e-08 -3.3304073588e-08 2.64271777e-08 4.1028797913e-07 -2.8199427654e-07 2.0248138367e-07 1.789686174e-06 -1.405800132e-06 2.0918085941e-07 
2.33481045e-06 -2.5473397917e-06 9.6669940074e-08 2.4727210517e-06 -4.0161924117e-06 5.6051712457e-08 2.4997034424e-06 -5.5505692955e-06 6.216668761e-08 
2.5085048439e-06 -7.1003138153e-06 7.6566190006e-08 2.5142747895e-06 -8.6545807715e-06 9.1971632454e-08 2.5189256957e-06 -1.0212283176e-05 1.0799788725e-07 
2.5219415484e-06 -1.1771913841e-05 1.2417545076e-07 2.5245120179e-06 -1.3333859693e-05 1.4004677857e-07 2.5263022983e-06 -1.4897127119e-05 1.5601328495e-07 
2.5276601575e-06 -1.6461262179e-05 1.7235245238e-07 2.5289895732e-06 -1.8026269566e-05 1.8862986301e-07 2.5302569978e-06 -1.9592099885e-05 2.0489618943e-07 
2.531458556e-06 -2.1158701797e-05 2.2116219491e-07 2.5325936422e-06 -2.2726035571e-05 2.3742585997e-07 2.5336620707e-06 -2.4294056758e-05 2.5369109856e-07 
2.5346637483e-06 -2.5862726178e-05 2.6995454084e-07 2.5355986556e-06 -2.7431999498e-05 2.8621971993e-07 2.5364667857e-06 -2.9001837561e-05 3.024831453e-07 
2.5372681371e-06 -3.0572196046e-05 3.1874831984e-07 2.5380027073e-06 -3.21430358e-05 3.3501174305e-07 2.5386704991e-06 -3.3714312491e-05 3.5127691287e-07 
2.5392715079e-06 -3.5285986997e-05 3.6754033186e-07 2.5398057174e-06 -3.6858014944e-05 3.8380549787e-07 2.5402732019e-06 -3.843035711e-05 4.0006893259e-07 
2.5406741677e-06 -4.0002969401e-05 4.1633407084e-07 2.5410092776e-06 -4.1575813296e-05 4.3259790341e-07 1.3267981615e-06 -9.739236637e-07 2.7358997554e-07 
2.1297223327e-06 -1.922722604e-06 1.4499455489e-07 2.420978272e-06 -3.2668206937e-06 6.9420125414e-08 2.4928193751e-06 -4.7784577664e-06 5.6670485809e-08 
2.5044915763e-06 -6.3247352512e-06 6.9212383394e-08 2.5116289744e-06 -7.8770000866e-06 8.417137951e-08 2.5166557817e-06 -9.4331524753e-06 1.0000201786e-07 
2.5206620432e-06 -1.099174447e-05 1.1612534826e-07 2.5232533501e-06 -1.2552768341e-05 1.3225456924e-07 2.5256559373e-06 -1.4115429225e-05 1.4806097751e-07 
2.5269873243e-06 -1.5679092076e-05 1.641936063e-07 2.5283316681e-06 -1.724365955e-05 1.8049358e-07 2.5296305438e-06 -1.8809085419e-05 1.9676348474e-07 
2.5308661481e-06 -2.0375306889e-05 2.1302932515e-07 2.5320335571e-06 -2.1942279986e-05 2.292940627e-07 2.5331362809e-06 -2.3509962686e-05 2.4555848976e-07 
2.5341703891e-06 -2.5078313211e-05 2.6182282244e-07 2.5351396323e-06 -2.6647289798e-05 2.7808713117e-07 2.5360402019e-06 -2.8216850707e-05 2.9435143282e-07 
2.5368758923e-06 -2.9786954198e-05 3.1061573269e-07 2.5376429038e-06 -3.1357558534e-05 3.2688003136e-07 2.5383450312e-06 -3.2928621977e-05 3.4314433015e-07 
2.5389784949e-06 -3.4500102791e-05 3.5940862214e-07 2.5395470454e-06 -3.6071959236e-05 3.7567291464e-07 2.5400469309e-06 -3.7644149524e-05 3.9193720713e-07 
2.5404820489e-06 -3.921663191e-05 4.0820152628e-07 2.5408491124e-06 -4.0789365085e-05 4.2446580058e-07 2.5411527726e-06 -4.236230851e-05 4.407301838e-07 
2.5414800367e-06 -4.4722031823e-05 4.6512416243e-07 2.5416251483e-06 -4.6295298608e-05 4.8139082668e-07 2.5417244424e-06 -4.7868627628e-05 4.9765869639e-07 
2.5417844337e-06 -4.9441991506e-05 5.1392861058e-07 2.5418170918e-06 -5.1015371251e-05 5.3019957582e-07 2.5418301935e-06 -5.2588750512e-05 5.464723594e-07 
2.5413871228e-06 -4.393543091e-05 4.5699130987e-07 2.5415589548e-06 -4.5508655888e-05 4.7325713393e-07 2.5416797112e-06 -4.7081956852e-05 4.8952453183e-07 
2.5417584762e-06 -4.8655306401e-05 5.0579338862e-07 2.5418035186e-06 -5.0228680329e-05 5.2206387663e-07 2.541825216e-06 -5.1802061368e-05 5.3833568127e-07 
2.5418328447e-06 -5.3375437307e-05 5.5460938813e-07 1.2831402427e-06 -5.4162109397e-05 5.6859028572e-07 2.4449649326e-08 -5.416209979e-05 5.7443460456e-07 
-1.2342409116e-06 -5.4162096293e-05 5.8027892883e-07 1.9124872538e-06 -5.4162115894e-05 5.656683988e-07 6.5379457089e-07 -5.4162103877e-05 5.7151236791e-07 
-6.0489530273e-07 -5.4162097336e-05 5.7735684814e-07 -1.863587949e-06 -5.4162096406e-05 5.8320078956e-07 -2.4926077022e-06 -4.4722006606e-05 4.8844580571e-07 
-2.4927496823e-06 -4.629527225e-05 5.0472940165e-07 -2.4928446883e-06 -4.7868601384e-05 5.2101141652e-07 -2.4928999137e-06 -4.9441965299e-05 5.3729127385e-07 
-2.4929276308e-06 -5.1015345102e-05 5.5357003238e-07 -2.492935764e-06 -5.2588724328e-05 5.6984699437e-07 -2.4925144455e-06 -4.3935408351e-05 4.8030387598e-07 
-2.492685185e-06 -4.5508629768e-05 4.9658808492e-07 -2.4928021727e-06 -4.7081930523e-05 5.1287065783e-07 -2.4928763318e-06 -4.865528019e-05 5.2915160305e-07 
-2.4929165221e-06 -5.0228654251e-05 5.4543085998e-07 -2.4929332723e-06 -5.1802035336e-05 5.6170880329e-07 -2.492936019e-06 -5.3375411206e-05 5.7798484067e-07 
-1.7671901269e-06 -1.37674867e-06 -1.9544868956e-07 -2.290435944e-06 -2.5612609373e-06 -9.6213413526e-09 -2.4257105778e-06 -4.0147847192e-06 5.2529440831e-08 
-2.4507551143e-06 -5.5507570339e-06 7.792862328e-08 -2.4596192375e-06 -7.1003630107e-06 9.5888789284e-08 -2.4654399701e-06 -8.6545890839e-06 1.1301406217e-07 
-2.4700644299e-06 -1.0212282461e-05 1.2949888206e-07 -2.4730841993e-06 -1.1771911573e-05 1.4585453297e-07 -2.4756455063e-06 -1.3333858522e-05 1.625294137e-07 
-2.4774329248e-06 -1.4897127438e-05 1.7911285617e-07 -2.4787948953e-06 -1.6461262042e-05 1.953234833e-07 -2.4801244575e-06 -1.802626955e-05 2.1159587137e-07 
-2.4813918932e-06 -1.9592099899e-05 2.2787935491e-07 -2.4825934428e-06 -2.1158701797e-05 2.4416317025e-07 -2.483728526e-06 -2.272603558e-05 2.6044933395e-07 
-2.4847969539e-06 -2.4294056754e-05 2.7673392723e-07 -2.4857986313e-06 -2.5862726185e-05 2.9302031835e-07 -2.4867335386e-06 -2.7431999492e-05 3.0930497289e-07 
-2.4876016685e-06 -2.9001837567e-05 3.2559138166e-07 -2.48840302e-06 -3.0572196039e-05 3.41876041e-07 -2.4891375942e-06 -3.2143035802e-05 3.5816245071e-07 
-2.4898053876e-06 -3.3714312502e-05 3.7444710785e-07 -2.490406402e-06 -3.5285987001e-05 3.9073352199e-07 -2.4909406376e-06 -3.6858014991e-05 4.0701820331e-07 
-2.4914080485e-06 -3.8430357358e-05 4.2330466228e-07 -2.491808496e-06 -4.0002969755e-05 4.3958933219e-07 -2.4921413553e-06 -4.1575812553e-05 4.5587592444e-07 
-1.3012128382e-06 -9.6291250196e-07 -2.5982981669e-07 -2.0907831172e-06 -1.9034849342e-06 -8.7936150868e-08 -2.3776124254e-06 -3.2679008616e-06 2.7941221102e-08 
-2.4444595154e-06 -4.7782648077e-06 6.732124063e-08 -2.4555492006e-06 -6.3248563014e-06 8.7007499447e-08 -2.4627902439e-06 -7.8770196142e-06 1.0455328422e-07 
-2.4678075318e-06 -9.4331540404e-06 1.2124010191e-07 -2.4717999238e-06 -1.099174509e-05 1.376352449e-07 -2.4743914853e-06 -1.2552766677e-05 1.5405122014e-07 
-2.4767959738e-06 -1.4115427884e-05 1.7079198606e-07 -2.4781209594e-06 -1.5679091917e-05 1.8720743369e-07 -2.4794665193e-06 -1.7243659506e-05 2.0345725251e-07 
-2.4807654479e-06 -1.8809085422e-05 2.1973715404e-07 -2.482001034e-06 -2.0375306897e-05 2.3602112834e-07 -2.4831684512e-06 -2.1942279991e-05 2.5230621631e-07 
-2.4842711603e-06 -2.3509962688e-05 2.6859161984e-07 -2.4853052813e-06 -2.5078313212e-05 2.8487711998e-07 -2.4862745114e-06 -2.6647289798e-05 3.0116264479e-07 
-2.4871750939e-06 -2.8216850707e-05 3.1744817705e-07 -2.4880107712e-06 -2.9786954197e-05 3.337337113e-07 -2.4887777974e-06 -3.1357558533e-05 3.5001924565e-07 
-2.4894799208e-06 -3.2928621977e-05 3.6630478112e-07 -2.4901133759e-06 -3.4500102795e-05 3.8259031325e-07 -2.4906819501e-06 -3.6071959258e-05 3.9887585793e-07 
-2.4911818389e-06 -3.7644149654e-05 4.1516143045e-07 -2.49161675e-06 -3.9216632263e-05 4.3144702032e-07 -2.4919826271e-06 -4.0789365161e-05 4.4773278708e-07 